LAMMPS data file generated by OpenBabel
5784 atoms
0  bonds
0  angles
0  dihedrals
0  impropers
3 atom types
0  bond types
0  angle types
0  dihedral types
0  improper types
0.000000 88.382870580513782 xlo xhi
0.000000 88.382870580513782 ylo yhi
0.000000 88.382870580513782 zlo zhi



Masses

1 12.0107 # C
2 1.00794 # H
3 15.9994 # O


Atoms

   1	1	0.000	87.552	56.137	41.543
   2	1	0.000	86.653	55.765	42.458
   3	2	0.000	88.159	57.025	41.682
   4	2	0.000	87.698	55.559	40.635
   5	2	0.000	86.506	56.342	43.365
   6	2	0.000	86.045	54.877	42.318
   7	1	0.000	61.134	4.746	32.184
   8	1	0.000	61.613	4.038	31.157
   9	2	0.000	60.736	5.745	32.039
  10	2	0.000	61.132	4.340	33.191
  11	2	0.000	61.615	4.444	30.151
  12	2	0.000	62.011	3.039	31.302
  13	1	0.000	22.731	79.713	25.055
  14	1	0.000	21.813	78.889	24.542
  15	2	0.000	22.869	79.799	26.127
  16	2	0.000	23.362	80.318	24.412
  17	2	0.000	21.182	78.284	25.184
  18	2	0.000	21.675	78.803	23.468
  19	1	0.000	23.058	70.779	7.823
  20	1	0.000	22.642	70.332	6.635
  21	2	0.000	22.371	70.881	8.656
  22	2	0.000	24.097	71.052	7.986
  23	2	0.000	21.605	70.059	6.472
  24	2	0.000	23.330	70.230	5.802
  25	1	0.000	51.724	6.440	67.587
  26	1	0.000	50.527	5.857	67.477
  27	2	0.000	52.010	6.966	68.492
  28	2	0.000	52.441	6.404	66.773
  29	2	0.000	49.810	5.893	68.290
  30	2	0.000	50.241	5.331	66.571
  31	1	0.000	79.940	24.788	63.772
  32	1	0.000	81.172	24.370	64.077
  33	2	0.000	79.343	25.340	64.490
  34	2	0.000	79.506	24.587	62.798
  35	2	0.000	81.607	24.572	65.050
  36	2	0.000	81.770	23.818	63.358
  37	1	0.000	22.757	35.880	4.964
  38	1	0.000	21.445	36.002	4.745
  39	2	0.000	23.143	35.683	5.959
  40	2	0.000	23.472	35.974	4.152
  41	2	0.000	20.730	35.908	5.555
  42	2	0.000	21.060	36.199	3.749
  43	1	0.000	46.639	12.228	81.837
  44	1	0.000	47.929	11.919	81.997
  45	2	0.000	46.028	12.533	82.680
  46	2	0.000	46.169	12.181	80.860
  47	2	0.000	48.399	11.965	82.973
  48	2	0.000	48.540	11.613	81.153
  49	1	0.000	23.876	67.810	61.155
  50	1	0.000	22.889	66.911	61.180
  51	2	0.000	24.482	68.001	62.034
  52	2	0.000	24.097	68.374	60.254
  53	2	0.000	22.667	66.347	62.081
  54	2	0.000	22.282	66.720	60.301
  55	1	0.000	70.449	35.098	46.232
  56	1	0.000	71.464	34.231	46.174
  57	2	0.000	70.090	35.477	47.183
  58	2	0.000	69.956	35.445	45.329
  59	2	0.000	71.957	33.885	47.076
  60	2	0.000	71.823	33.852	45.222
  61	1	0.000	77.152	75.894	84.085
  62	1	0.000	75.923	75.566	84.496
  63	2	0.000	77.303	76.490	83.191
  64	2	0.000	78.031	75.572	84.635
  65	2	0.000	75.045	75.888	83.947
  66	2	0.000	75.773	74.970	85.391
  67	1	0.000	29.881	3.858	35.657
  68	1	0.000	29.912	2.561	35.337
  69	2	0.000	29.049	4.278	36.212
  70	2	0.000	30.689	4.525	35.372
  71	2	0.000	29.105	1.894	35.622
  72	2	0.000	30.745	2.141	34.782
  73	1	0.000	55.945	25.867	38.840
  74	1	0.000	56.909	25.122	39.388
  75	2	0.000	54.971	25.958	39.310
  76	2	0.000	56.110	26.402	37.910
  77	2	0.000	56.744	24.588	40.317
  78	2	0.000	57.883	25.032	38.917
  79	1	0.000	50.711	50.332	76.290
  80	1	0.000	50.467	50.097	74.997
  81	2	0.000	51.247	49.612	76.899
  82	2	0.000	50.380	51.251	76.764
  83	2	0.000	50.798	49.179	74.523
  84	2	0.000	49.931	50.818	74.388
  85	1	0.000	28.937	58.452	19.433
  86	1	0.000	27.949	59.272	19.063
  87	2	0.000	28.865	57.862	20.341
  88	2	0.000	29.838	58.356	18.836
  89	2	0.000	27.048	59.368	19.660
  90	2	0.000	28.022	59.862	18.155
  91	1	0.000	16.805	23.790	42.782
  92	1	0.000	16.923	23.267	44.006
  93	2	0.000	17.682	24.054	42.199
  94	2	0.000	15.830	23.963	42.338
  95	2	0.000	17.897	23.093	44.449
  96	2	0.000	16.045	23.003	44.588
  97	1	0.000	55.129	57.379	83.445
  98	1	0.000	54.313	57.127	84.472
  99	2	0.000	55.673	58.316	83.378
 100	2	0.000	55.271	56.653	82.650
 101	2	0.000	54.172	57.853	85.266
 102	2	0.000	53.770	56.190	84.538
 103	1	0.000	41.251	31.322	8.258
 104	1	0.000	42.148	30.365	8.510
 105	2	0.000	40.935	31.541	7.244
 106	2	0.000	40.814	31.906	9.063
 107	2	0.000	42.585	29.781	7.707
 108	2	0.000	42.464	30.147	9.526
 109	1	0.000	46.438	57.241	3.109
 110	1	0.000	47.045	56.052	3.048
 111	2	0.000	47.010	58.157	3.203
 112	2	0.000	45.356	57.320	3.065
 113	2	0.000	48.126	55.972	3.091
 114	2	0.000	46.471	55.135	2.953
 115	1	0.000	36.535	4.380	5.739
 116	1	0.000	35.684	4.730	6.707
 117	2	0.000	36.753	3.337	5.535
 118	2	0.000	37.032	5.130	5.131
 119	2	0.000	35.188	3.981	7.315
 120	2	0.000	35.467	5.774	6.911
 121	1	0.000	37.552	78.867	37.970
 122	1	0.000	37.441	78.101	39.059
 123	2	0.000	37.133	79.867	37.944
 124	2	0.000	38.066	78.508	37.083
 125	2	0.000	36.928	78.459	39.946
 126	2	0.000	37.861	77.100	39.085
 127	1	0.000	17.991	47.154	64.972
 128	1	0.000	17.532	45.956	65.346
 129	2	0.000	18.191	47.376	63.929
 130	2	0.000	18.177	47.935	65.703
 131	2	0.000	17.347	45.175	64.617
 132	2	0.000	17.333	45.734	66.390
 133	1	0.000	26.724	21.546	31.178
 134	1	0.000	27.302	21.808	30.002
 135	2	0.000	25.902	22.151	31.546
 136	2	0.000	27.063	20.721	31.797
 137	2	0.000	26.963	22.632	29.384
 138	2	0.000	28.124	21.202	29.635
 139	1	0.000	55.852	27.142	52.464
 140	1	0.000	56.496	28.282	52.199
 141	2	0.000	55.128	27.082	53.269
 142	2	0.000	56.037	26.245	51.881
 143	2	0.000	56.312	29.178	52.782
 144	2	0.000	57.221	28.341	51.393
 145	1	0.000	66.320	69.735	10.373
 146	1	0.000	65.166	69.543	9.728
 147	2	0.000	66.479	69.332	11.368
 148	2	0.000	67.128	70.301	9.920
 149	2	0.000	64.358	68.978	10.181
 150	2	0.000	65.007	69.948	8.733
 151	1	0.000	36.265	11.937	37.441
 152	1	0.000	35.535	10.818	37.441
 153	2	0.000	36.824	12.241	38.319
 154	2	0.000	36.318	12.570	36.561
 155	2	0.000	35.481	10.184	38.320
 156	2	0.000	34.976	10.514	36.562
 157	1	0.000	34.299	83.790	75.509
 158	1	0.000	34.992	84.907	75.270
 159	2	0.000	33.347	83.607	75.023
 160	2	0.000	34.671	83.036	76.196
 161	2	0.000	34.621	85.660	74.584
 162	2	0.000	35.945	85.089	75.757
 163	1	0.000	74.380	52.016	19.542
 164	1	0.000	75.163	51.856	20.613
 165	2	0.000	73.428	51.501	19.463
 166	2	0.000	74.675	52.665	18.724
 167	2	0.000	74.868	51.207	21.431
 168	2	0.000	76.115	52.371	20.692
 169	1	0.000	6.333	6.662	22.445
 170	1	0.000	7.603	6.657	22.860
 171	2	0.000	6.089	6.602	21.390
 172	2	0.000	5.513	6.727	23.153
 173	2	0.000	8.423	6.593	22.152
 174	2	0.000	7.848	6.718	23.916
 175	1	0.000	15.477	51.945	9.807
 176	1	0.000	16.234	52.677	8.985
 177	2	0.000	15.922	51.231	10.491
 178	2	0.000	14.396	52.047	9.812
 179	2	0.000	17.314	52.576	8.980
 180	2	0.000	15.788	53.393	8.301
 181	1	0.000	40.987	43.869	77.510
 182	1	0.000	41.402	44.109	76.263
 183	2	0.000	40.540	42.917	77.778
 184	2	0.000	41.087	44.620	78.288
 185	2	0.000	41.303	43.360	75.485
 186	2	0.000	41.849	45.062	75.995
 187	1	0.000	47.653	25.120	4.430
 188	1	0.000	47.208	26.204	5.072
 189	2	0.000	47.237	24.139	4.632
 190	2	0.000	48.443	25.194	3.688
 191	2	0.000	46.419	26.131	5.813
 192	2	0.000	47.624	27.186	4.869
 193	1	0.000	7.842	63.852	9.035
 194	1	0.000	8.214	62.901	9.896
 195	2	0.000	8.565	64.335	8.386
 196	2	0.000	6.805	64.167	8.962
 197	2	0.000	9.249	62.586	9.969
 198	2	0.000	7.490	62.419	10.545
 199	1	0.000	68.076	57.048	41.328
 200	1	0.000	69.345	56.633	41.296
 201	2	0.000	67.514	57.201	40.413
 202	2	0.000	67.574	57.243	42.271
 203	2	0.000	69.847	56.438	40.355
 204	2	0.000	69.907	56.479	42.213
 205	1	0.000	36.905	51.550	60.828
 206	1	0.000	36.201	50.594	60.215
 207	2	0.000	36.534	52.031	61.727
 208	2	0.000	37.868	51.871	60.442
 209	2	0.000	35.240	50.273	60.601
 210	2	0.000	36.574	50.114	59.316
 211	1	0.000	70.316	68.698	24.897
 212	1	0.000	68.985	68.724	24.785
 213	2	0.000	70.921	69.537	24.572
 214	2	0.000	70.826	67.835	25.315
 215	2	0.000	68.474	69.585	24.368
 216	2	0.000	68.379	67.884	25.111
 217	1	0.000	20.464	38.616	59.990
 218	1	0.000	20.280	37.293	59.944
 219	2	0.000	20.709	39.115	60.922
 220	2	0.000	20.373	39.225	59.096
 221	2	0.000	20.370	36.684	60.837
 222	2	0.000	20.035	36.794	59.012
 223	1	0.000	73.788	33.902	60.592
 224	1	0.000	74.714	32.959	60.396
 225	2	0.000	73.636	34.342	61.572
 226	2	0.000	73.164	34.251	59.776
 227	2	0.000	75.339	32.609	61.212
 228	2	0.000	74.866	32.519	59.416
 229	1	0.000	12.953	24.889	64.007
 230	1	0.000	11.715	25.139	63.571
 231	2	0.000	13.483	25.603	64.628
 232	2	0.000	13.461	23.964	63.750
 233	2	0.000	11.207	26.063	63.827
 234	2	0.000	11.185	24.424	62.949
 235	1	0.000	78.535	52.337	18.324
 236	1	0.000	79.866	52.221	18.331
 237	2	0.000	78.055	53.297	18.479
 238	2	0.000	77.898	51.472	18.163
 239	2	0.000	80.502	53.085	18.491
 240	2	0.000	80.345	51.260	18.176
 241	1	0.000	52.871	78.477	61.951
 242	1	0.000	54.080	78.958	62.254
 243	2	0.000	52.750	77.472	61.561
 244	2	0.000	51.978	79.079	62.088
 245	2	0.000	54.972	78.356	62.118
 246	2	0.000	54.200	79.964	62.644
 247	1	0.000	64.759	69.184	4.370
 248	1	0.000	64.092	68.256	3.676
 249	2	0.000	65.028	70.133	3.920
 250	2	0.000	65.047	69.010	5.402
 251	2	0.000	63.804	68.429	2.644
 252	2	0.000	63.823	67.306	4.126
 253	1	0.000	52.744	6.593	49.079
 254	1	0.000	52.013	6.216	50.132
 255	2	0.000	53.552	7.309	49.186
 256	2	0.000	52.548	6.193	48.089
 257	2	0.000	52.209	6.616	51.122
 258	2	0.000	51.205	5.500	50.025
 259	1	0.000	35.583	17.387	46.105
 260	1	0.000	35.850	18.267	47.075
 261	2	0.000	34.733	17.523	45.444
 262	2	0.000	36.209	16.514	45.954
 263	2	0.000	35.224	19.140	47.226
 264	2	0.000	36.700	18.131	47.736
 265	1	0.000	49.671	4.451	73.053
 266	1	0.000	49.726	5.307	72.029
 267	2	0.000	50.148	3.478	72.996
 268	2	0.000	49.149	4.707	73.969
 269	2	0.000	50.248	5.051	71.113
 270	2	0.000	49.249	6.280	72.087
 271	1	0.000	51.991	54.843	51.399
 272	1	0.000	51.752	56.031	51.962
 273	2	0.000	51.959	54.717	50.322
 274	2	0.000	52.222	53.972	52.005
 275	2	0.000	51.521	56.901	51.356
 276	2	0.000	51.784	56.157	53.040
 277	1	0.000	69.794	26.865	13.509
 278	1	0.000	70.817	26.053	13.229
 279	2	0.000	69.000	27.034	12.789
 280	2	0.000	69.730	27.377	14.464
 281	2	0.000	70.881	25.541	12.275
 282	2	0.000	71.611	25.883	13.950
 283	1	0.000	6.062	17.375	25.857
 284	1	0.000	5.777	18.433	25.091
 285	2	0.000	5.380	17.045	26.633
 286	2	0.000	6.984	16.818	25.721
 287	2	0.000	4.856	18.989	25.226
 288	2	0.000	6.460	18.762	24.315
 289	1	0.000	11.592	7.217	44.250
 290	1	0.000	11.019	7.005	45.438
 291	2	0.000	12.658	7.078	44.109
 292	2	0.000	11.004	7.535	43.394
 293	2	0.000	11.606	6.687	46.294
 294	2	0.000	9.952	7.145	45.579
 295	1	0.000	34.953	53.435	72.113
 296	1	0.000	36.275	53.614	72.043
 297	2	0.000	34.371	53.871	72.918
 298	2	0.000	34.427	52.848	71.366
 299	2	0.000	36.801	54.201	72.789
 300	2	0.000	36.857	53.178	71.237
 301	1	0.000	4.909	14.231	24.728
 302	1	0.000	3.890	13.762	24.003
 303	2	0.000	5.721	14.782	24.264
 304	2	0.000	4.952	14.073	25.802
 305	2	0.000	3.847	13.920	22.930
 306	2	0.000	3.078	13.212	24.468
 307	1	0.000	49.978	57.833	6.028
 308	1	0.000	50.991	57.149	5.488
 309	2	0.000	49.044	57.965	5.493
 310	2	0.000	50.065	58.275	7.016
 311	2	0.000	50.905	56.707	4.501
 312	2	0.000	51.926	57.017	6.023
 313	1	0.000	45.173	58.721	77.324
 314	1	0.000	44.098	58.369	76.612
 315	2	0.000	45.295	58.395	78.351
 316	2	0.000	45.952	59.342	76.892
 317	2	0.000	43.320	57.749	77.044
 318	2	0.000	43.976	58.695	75.584
 319	1	0.000	84.007	66.840	43.907
 320	1	0.000	84.936	67.791	44.038
 321	2	0.000	83.305	66.629	44.707
 322	2	0.000	83.930	66.254	42.996
 323	2	0.000	85.013	68.378	44.947
 324	2	0.000	85.638	68.002	43.237
 325	1	0.000	77.139	78.849	32.896
 326	1	0.000	76.190	77.910	32.942
 327	2	0.000	77.703	79.031	31.987
 328	2	0.000	77.371	79.454	33.767
 329	2	0.000	75.958	77.305	32.071
 330	2	0.000	75.626	77.727	33.851
 331	1	0.000	75.519	11.347	21.016
 332	1	0.000	75.115	11.786	22.212
 333	2	0.000	76.364	11.801	20.509
 334	2	0.000	75.011	10.526	20.520
 335	2	0.000	75.622	12.606	22.708
 336	2	0.000	74.270	11.331	22.719
 337	1	0.000	55.748	22.473	21.457
 338	1	0.000	54.413	22.447	21.496
 339	2	0.000	56.277	22.670	20.531
 340	2	0.000	56.337	22.298	22.352
 341	2	0.000	53.823	22.622	20.602
 342	2	0.000	53.883	22.250	22.423
 343	1	0.000	59.105	36.666	75.337
 344	1	0.000	59.814	35.544	75.188
 345	2	0.000	58.348	36.951	74.614
 346	2	0.000	59.266	37.322	76.187
 347	2	0.000	59.653	34.888	74.339
 348	2	0.000	60.571	35.259	75.912
 349	1	0.000	22.603	74.164	83.639
 350	1	0.000	22.501	73.209	84.567
 351	2	0.000	21.795	74.355	82.941
 352	2	0.000	23.497	74.774	83.559
 353	2	0.000	21.608	72.599	84.648
 354	2	0.000	23.310	73.018	85.266
 355	1	0.000	67.727	76.127	7.159
 356	1	0.000	67.673	77.278	7.835
 357	2	0.000	68.592	75.476	7.229
 358	2	0.000	66.906	75.813	6.521
 359	2	0.000	68.493	77.592	8.472
 360	2	0.000	66.807	77.929	7.764
 361	1	0.000	45.747	20.266	78.681
 362	1	0.000	46.883	19.565	78.623
 363	2	0.000	45.216	20.546	77.777
 364	2	0.000	45.325	20.572	79.633
 365	2	0.000	47.305	19.259	77.672
 366	2	0.000	47.414	19.284	79.528
 367	1	0.000	62.212	11.935	24.294
 368	1	0.000	61.050	11.659	23.695
 369	2	0.000	62.341	12.842	24.874
 370	2	0.000	63.057	11.257	24.217
 371	2	0.000	60.205	12.335	23.773
 372	2	0.000	60.921	10.750	23.115
 373	1	0.000	6.891	37.877	85.755
 374	1	0.000	8.001	37.523	86.408
 375	2	0.000	6.728	38.903	85.443
 376	2	0.000	6.124	37.147	85.518
 377	2	0.000	8.769	38.253	86.644
 378	2	0.000	8.165	36.496	86.719
 379	1	0.000	52.117	83.226	28.247
 380	1	0.000	50.947	82.775	27.785
 381	2	0.000	53.046	82.722	28.005
 382	2	0.000	52.167	84.108	28.878
 383	2	0.000	50.896	81.893	27.155
 384	2	0.000	50.017	83.280	28.027
 385	1	0.000	29.264	4.540	76.120
 386	1	0.000	27.944	4.722	76.212
 387	2	0.000	29.676	3.657	75.644
 388	2	0.000	29.959	5.273	76.519
 389	2	0.000	27.249	3.990	75.813
 390	2	0.000	27.532	5.606	76.688
 391	1	0.000	86.164	44.091	11.560
 392	1	0.000	85.444	44.820	10.702
 393	2	0.000	85.792	43.868	12.555
 394	2	0.000	87.139	43.703	11.284
 395	2	0.000	84.469	45.208	10.978
 396	2	0.000	85.816	45.042	9.707
 397	1	0.000	27.730	54.898	33.801
 398	1	0.000	26.484	54.560	34.144
 399	2	0.000	28.253	54.378	33.006
 400	2	0.000	28.252	55.703	34.310
 401	2	0.000	25.962	53.757	33.636
 402	2	0.000	25.961	55.082	34.940
 403	1	0.000	1.022	60.556	22.978
 404	1	0.000	1.889	61.481	22.556
 405	2	0.000	1.160	59.508	22.733
 406	2	0.000	0.159	60.828	23.576
 407	2	0.000	2.752	61.209	21.958
 408	2	0.000	1.751	62.530	22.801
 409	1	0.000	86.697	84.970	25.709
 410	1	0.000	86.937	86.234	25.348
 411	2	0.000	87.295	84.153	25.321
 412	2	0.000	85.897	84.729	26.402
 413	2	0.000	87.737	86.476	24.656
 414	2	0.000	86.339	87.052	25.737
 415	1	0.000	32.994	41.466	64.235
 416	1	0.000	34.043	40.900	64.837
 417	2	0.000	32.065	41.634	64.770
 418	2	0.000	33.043	41.772	63.195
 419	2	0.000	33.995	40.594	65.877
 420	2	0.000	34.973	40.732	64.301
 421	1	0.000	55.309	68.094	35.007
 422	1	0.000	54.329	67.192	34.898
 423	2	0.000	55.194	68.974	35.631
 424	2	0.000	56.246	67.970	34.472
 425	2	0.000	53.393	67.316	35.432
 426	2	0.000	54.445	66.312	34.274
 427	1	0.000	9.172	24.424	36.570
 428	1	0.000	9.896	23.561	35.851
 429	2	0.000	9.255	25.494	36.411
 430	2	0.000	8.481	24.077	37.332
 431	2	0.000	10.587	23.908	35.090
 432	2	0.000	9.812	22.491	36.011
 433	1	0.000	86.658	33.564	5.806
 434	1	0.000	87.486	32.811	5.077
 435	2	0.000	85.980	34.269	5.336
 436	2	0.000	86.642	33.491	6.889
 437	2	0.000	87.502	32.884	3.995
 438	2	0.000	88.164	32.106	5.549
 439	1	0.000	13.492	37.129	3.133
 440	1	0.000	14.794	37.012	2.858
 441	2	0.000	12.752	36.534	2.608
 442	2	0.000	13.139	37.823	3.890
 443	2	0.000	15.146	36.318	2.102
 444	2	0.000	15.533	37.608	3.384
 445	1	0.000	35.177	32.961	62.134
 446	1	0.000	35.530	32.786	63.410
 447	2	0.000	34.237	32.574	61.755
 448	2	0.000	35.822	33.496	61.443
 449	2	0.000	34.886	32.252	64.101
 450	2	0.000	36.471	33.173	63.790
 451	1	0.000	6.084	81.481	60.915
 452	1	0.000	4.829	81.919	61.053
 453	2	0.000	6.566	81.459	59.944
 454	2	0.000	6.654	81.137	61.773
 455	2	0.000	4.259	82.263	60.197
 456	2	0.000	4.347	81.941	62.026
 457	1	0.000	35.396	71.014	74.878
 458	1	0.000	34.301	71.514	75.456
 459	2	0.000	36.091	70.395	75.436
 460	2	0.000	35.620	71.213	73.834
 461	2	0.000	34.077	71.315	76.499
 462	2	0.000	33.606	72.133	74.897
 463	1	0.000	9.572	57.434	29.242
 464	1	0.000	10.106	56.584	28.360
 465	2	0.000	10.184	57.912	29.999
 466	2	0.000	8.512	57.668	29.223
 467	2	0.000	11.165	56.349	28.378
 468	2	0.000	9.493	56.106	27.602
 469	1	0.000	22.428	39.175	18.066
 470	1	0.000	23.557	38.780	17.472
 471	2	0.000	21.699	39.781	17.538
 472	2	0.000	22.210	38.900	19.094
 473	2	0.000	23.775	39.054	16.445
 474	2	0.000	24.286	38.173	18.001
 475	1	0.000	67.349	36.160	16.420
 476	1	0.000	66.212	35.523	16.124
 477	2	0.000	67.953	36.617	15.643
 478	2	0.000	67.697	36.237	17.445
 479	2	0.000	65.863	35.446	15.100
 480	2	0.000	65.608	35.067	16.902
 481	1	0.000	6.318	53.612	75.354
 482	1	0.000	6.473	52.538	74.574
 483	2	0.000	6.168	54.597	74.927
 484	2	0.000	6.338	53.525	76.436
 485	2	0.000	6.453	52.624	73.493
 486	2	0.000	6.624	51.552	75.002
 487	1	0.000	5.723	59.440	75.662
 488	1	0.000	4.485	59.505	75.164
 489	2	0.000	6.573	59.808	75.098
 490	2	0.000	5.910	59.018	76.644
 491	2	0.000	4.297	59.927	74.183
 492	2	0.000	3.634	59.137	75.729
 493	1	0.000	84.002	52.493	87.405
 494	1	0.000	83.200	53.459	86.946
 495	2	0.000	84.036	51.520	86.927
 496	2	0.000	84.641	52.658	88.267
 497	2	0.000	82.562	53.295	86.085
 498	2	0.000	83.167	54.433	87.425
 499	1	0.000	86.968	36.173	51.167
 500	1	0.000	86.129	36.936	51.874
 501	2	0.000	86.609	35.312	50.612
 502	2	0.000	88.030	36.394	51.131
 503	2	0.000	85.067	36.715	51.911
 504	2	0.000	86.488	37.797	52.429
 505	1	0.000	63.073	79.279	1.831
 506	1	0.000	64.380	79.098	1.622
 507	2	0.000	62.385	79.398	1.001
 508	2	0.000	62.666	79.310	2.836
 509	2	0.000	64.788	79.067	0.617
 510	2	0.000	65.069	78.978	2.452
 511	1	0.000	16.080	83.025	46.990
 512	1	0.000	15.280	81.955	46.956
 513	2	0.000	15.690	84.022	46.817
 514	2	0.000	17.142	82.923	47.192
 515	2	0.000	14.219	82.056	46.754
 516	2	0.000	15.671	80.958	47.129
 517	1	0.000	29.162	60.576	69.042
 518	1	0.000	28.299	59.589	68.784
 519	2	0.000	29.778	60.561	69.935
 520	2	0.000	29.268	61.418	68.366
 521	2	0.000	28.192	58.747	69.460
 522	2	0.000	27.682	59.604	67.891
 523	1	0.000	3.498	55.057	43.205
 524	1	0.000	3.382	53.726	43.203
 525	2	0.000	3.352	55.634	42.298
 526	2	0.000	3.741	55.596	44.116
 527	2	0.000	3.138	53.187	42.293
 528	2	0.000	3.527	53.150	44.111
 529	1	0.000	23.951	61.682	46.656
 530	1	0.000	23.035	61.967	47.586
 531	2	0.000	24.011	60.693	46.215
 532	2	0.000	24.658	62.433	46.318
 533	2	0.000	22.327	61.218	47.924
 534	2	0.000	22.974	62.957	48.027
 535	1	0.000	56.838	37.093	81.900
 536	1	0.000	55.683	37.765	81.924
 537	2	0.000	57.116	36.429	82.712
 538	2	0.000	57.527	37.194	81.068
 539	2	0.000	54.994	37.664	82.756
 540	2	0.000	55.405	38.430	81.112
 541	1	0.000	58.754	83.356	54.785
 542	1	0.000	58.619	82.481	55.785
 543	2	0.000	58.911	84.411	54.981
 544	2	0.000	58.709	83.033	53.749
 545	2	0.000	58.663	82.803	56.820
 546	2	0.000	58.461	81.425	55.589
 547	1	0.000	40.344	50.969	11.386
 548	1	0.000	41.408	51.447	12.038
 549	2	0.000	40.359	50.838	10.309
 550	2	0.000	39.437	50.699	11.917
 551	2	0.000	42.315	51.716	11.507
 552	2	0.000	41.393	51.577	13.115
 553	1	0.000	2.490	11.240	66.631
 554	1	0.000	3.401	10.905	67.549
 555	2	0.000	1.630	11.847	66.891
 556	2	0.000	2.588	10.913	65.600
 557	2	0.000	3.303	11.231	68.579
 558	2	0.000	4.262	10.297	67.289
 559	1	0.000	20.281	14.589	8.379
 560	1	0.000	19.142	14.534	7.683
 561	2	0.000	20.648	13.724	8.922
 562	2	0.000	20.870	15.500	8.418
 563	2	0.000	18.553	13.624	7.642
 564	2	0.000	18.776	15.399	7.139
 565	1	0.000	58.925	41.554	59.883
 566	1	0.000	57.766	41.789	60.506
 567	2	0.000	59.196	42.093	58.982
 568	2	0.000	59.626	40.818	60.264
 569	2	0.000	57.066	42.525	60.126
 570	2	0.000	57.496	41.250	61.408
 571	1	0.000	6.439	3.888	3.072
 572	1	0.000	6.386	5.091	3.651
 573	2	0.000	7.213	3.647	2.352
 574	2	0.000	5.708	3.120	3.308
 575	2	0.000	7.116	5.858	3.416
 576	2	0.000	5.611	5.331	4.373
 577	1	0.000	58.472	26.520	69.931
 578	1	0.000	57.953	25.403	69.414
 579	2	0.000	58.880	26.535	70.937
 580	2	0.000	58.500	27.442	69.358
 581	2	0.000	57.926	24.481	69.986
 582	2	0.000	57.546	25.388	68.408
 583	1	0.000	75.129	18.103	23.197
 584	1	0.000	74.998	19.353	22.742
 585	2	0.000	74.809	17.835	24.198
 586	2	0.000	75.559	17.323	22.576
 587	2	0.000	74.568	20.132	23.362
 588	2	0.000	75.319	19.620	21.740
 589	1	0.000	15.129	74.206	65.262
 590	1	0.000	15.053	72.878	65.388
 591	2	0.000	14.594	74.864	65.938
 592	2	0.000	15.728	74.661	64.479
 593	2	0.000	14.454	72.423	66.170
 594	2	0.000	15.588	72.220	64.711
 595	1	0.000	82.904	52.464	32.590
 596	1	0.000	82.529	52.920	33.789
 597	2	0.000	82.472	51.559	32.175
 598	2	0.000	83.650	52.987	32.000
 599	2	0.000	81.783	52.397	34.379
 600	2	0.000	82.961	53.825	34.203
 601	1	0.000	39.837	16.217	9.159
 602	1	0.000	39.250	15.891	10.314
 603	2	0.000	40.864	15.934	8.953
 604	2	0.000	39.300	16.773	8.396
 605	2	0.000	39.785	15.335	11.077
 606	2	0.000	38.222	16.173	10.519
 607	1	0.000	50.611	3.189	62.290
 608	1	0.000	50.650	4.183	61.399
 609	2	0.000	50.918	2.184	62.022
 610	2	0.000	50.272	3.362	63.307
 611	2	0.000	50.989	4.011	60.383
 612	2	0.000	50.344	5.189	61.668
 613	1	0.000	55.531	73.231	7.848
 614	1	0.000	56.572	73.817	7.249
 615	2	0.000	55.654	72.311	8.410
 616	2	0.000	54.536	73.660	7.788
 617	2	0.000	57.567	73.388	7.309
 618	2	0.000	56.449	74.738	6.688
 619	1	0.000	53.222	19.664	33.975
 620	1	0.000	52.116	20.405	34.087
 621	2	0.000	53.607	19.102	34.819
 622	2	0.000	53.766	19.607	33.037
 623	2	0.000	51.573	20.463	35.024
 624	2	0.000	51.731	20.968	33.242
 625	1	0.000	47.357	60.678	19.076
 626	1	0.000	46.173	61.189	18.725
 627	2	0.000	48.073	60.357	18.326
 628	2	0.000	47.633	60.571	20.120
 629	2	0.000	45.897	61.297	17.682
 630	2	0.000	45.458	61.511	19.475
 631	1	0.000	16.123	68.633	7.880
 632	1	0.000	15.969	67.393	7.407
 633	2	0.000	15.622	69.476	7.416
 634	2	0.000	16.754	68.829	8.741
 635	2	0.000	15.338	67.197	6.546
 636	2	0.000	16.470	66.550	7.871
 637	1	0.000	38.579	36.013	64.529
 638	1	0.000	38.964	37.288	64.633
 639	2	0.000	38.554	35.512	63.567
 640	2	0.000	38.281	35.445	65.405
 641	2	0.000	39.261	37.856	63.758
 642	2	0.000	38.989	37.789	65.596
 643	1	0.000	10.989	25.512	82.099
 644	1	0.000	10.895	25.523	83.432
 645	2	0.000	11.699	24.866	81.593
 646	2	0.000	10.358	26.150	81.488
 647	2	0.000	11.525	24.885	84.043
 648	2	0.000	10.184	26.169	83.938
 649	1	0.000	69.487	49.067	14.298
 650	1	0.000	69.596	47.753	14.083
 651	2	0.000	70.344	49.656	14.608
 652	2	0.000	68.539	49.579	14.168
 653	2	0.000	70.544	47.241	14.213
 654	2	0.000	68.739	47.163	13.773
 655	1	0.000	51.176	22.434	74.666
 656	1	0.000	51.139	21.103	74.560
 657	2	0.000	51.465	22.914	75.595
 658	2	0.000	50.917	23.070	73.825
 659	2	0.000	51.397	20.466	75.399
 660	2	0.000	50.850	20.623	73.630
 661	1	0.000	44.472	25.734	82.082
 662	1	0.000	45.660	26.339	82.178
 663	2	0.000	44.271	25.017	81.294
 664	2	0.000	43.678	25.945	82.792
 665	2	0.000	46.454	26.129	81.470
 666	2	0.000	45.860	27.057	82.968
 667	1	0.000	30.922	47.669	56.676
 668	1	0.000	29.917	47.407	55.836
 669	2	0.000	31.900	47.960	56.306
 670	2	0.000	30.787	47.598	57.751
 671	2	0.000	30.051	47.478	54.762
 672	2	0.000	28.939	47.116	56.207
 673	1	0.000	83.630	54.711	14.572
 674	1	0.000	82.616	55.037	15.379
 675	2	0.000	84.640	55.049	14.778
 676	2	0.000	83.469	54.099	13.690
 677	2	0.000	82.777	55.648	16.261
 678	2	0.000	81.606	54.698	15.173
 679	1	0.000	15.211	76.598	17.959
 680	1	0.000	16.403	77.142	17.697
 681	2	0.000	15.022	76.085	18.896
 682	2	0.000	14.399	76.656	17.240
 683	2	0.000	17.214	77.084	18.415
 684	2	0.000	16.590	77.655	16.759
 685	1	0.000	73.536	8.094	78.121
 686	1	0.000	74.346	8.548	79.081
 687	2	0.000	73.150	8.757	77.353
 688	2	0.000	73.242	7.050	78.084
 689	2	0.000	74.640	9.592	79.118
 690	2	0.000	74.732	7.885	79.848
 691	1	0.000	73.269	14.745	65.545
 692	1	0.000	73.944	14.580	66.686
 693	2	0.000	72.304	14.272	65.392
 694	2	0.000	73.667	15.356	64.741
 695	2	0.000	73.546	13.969	67.489
 696	2	0.000	74.909	15.053	66.839
 697	1	0.000	15.329	58.222	26.363
 698	1	0.000	15.137	59.538	26.236
 699	2	0.000	15.699	57.797	27.289
 700	2	0.000	15.120	57.544	25.541
 701	2	0.000	15.345	60.216	27.057
 702	2	0.000	14.767	59.964	25.308
 703	1	0.000	70.601	33.789	54.674
 704	1	0.000	69.819	32.897	54.058
 705	2	0.000	70.190	34.703	55.088
 706	2	0.000	71.669	33.622	54.776
 707	2	0.000	68.752	33.064	53.957
 708	2	0.000	70.232	31.982	53.644
 709	1	0.000	38.876	31.782	72.386
 710	1	0.000	37.747	31.078	72.260
 711	2	0.000	38.878	32.754	72.868
 712	2	0.000	39.819	31.401	72.008
 713	2	0.000	36.804	31.459	72.638
 714	2	0.000	37.745	30.106	71.777
 715	1	0.000	84.770	79.576	82.984
 716	1	0.000	86.024	79.203	82.715
 717	2	0.000	84.479	79.885	83.982
 718	2	0.000	84.009	79.579	82.210
 719	2	0.000	86.785	79.200	83.489
 720	2	0.000	86.315	78.894	81.716
 721	1	0.000	46.092	29.107	7.708
 722	1	0.000	46.797	29.394	8.806
 723	2	0.000	46.015	28.089	7.342
 724	2	0.000	45.578	29.886	7.153
 725	2	0.000	47.311	28.616	9.361
 726	2	0.000	46.874	30.413	9.172
 727	1	0.000	52.043	15.457	71.748
 728	1	0.000	52.437	14.394	71.042
 729	2	0.000	51.509	16.276	71.276
 730	2	0.000	52.247	15.530	72.812
 731	2	0.000	52.234	14.320	69.979
 732	2	0.000	52.972	13.575	71.514
 733	1	0.000	41.667	45.010	64.233
 734	1	0.000	40.778	44.257	64.886
 735	2	0.000	42.055	45.924	64.670
 736	2	0.000	42.025	44.727	63.248
 737	2	0.000	40.421	44.539	65.871
 738	2	0.000	40.391	43.342	64.449
 739	1	0.000	18.488	54.805	13.713
 740	1	0.000	18.673	55.342	14.923
 741	2	0.000	18.980	55.215	12.838
 742	2	0.000	17.841	53.945	13.576
 743	2	0.000	19.320	56.202	15.061
 744	2	0.000	18.180	54.932	15.799
 745	1	0.000	76.599	58.280	80.894
 746	1	0.000	77.364	58.532	81.960
 747	2	0.000	75.770	57.583	80.952
 748	2	0.000	76.787	58.767	79.942
 749	2	0.000	77.176	58.046	82.912
 750	2	0.000	78.193	59.230	81.902
 751	1	0.000	42.757	31.990	77.984
 752	1	0.000	43.860	32.055	77.233
 753	2	0.000	41.781	31.840	77.535
 754	2	0.000	42.809	32.084	79.065
 755	2	0.000	43.808	31.960	76.153
 756	2	0.000	44.836	32.204	77.683
 757	1	0.000	4.921	53.259	19.169
 758	1	0.000	3.754	53.295	18.519
 759	2	0.000	5.300	54.133	19.688
 760	2	0.000	5.521	52.355	19.194
 761	2	0.000	3.154	54.198	18.494
 762	2	0.000	3.376	52.420	17.999
 763	1	0.000	9.007	59.865	34.114
 764	1	0.000	7.819	60.258	34.582
 765	2	0.000	9.097	58.994	33.473
 766	2	0.000	9.914	60.408	34.363
 767	2	0.000	6.913	59.716	34.333
 768	2	0.000	7.730	61.130	35.223
 769	1	0.000	86.534	65.748	1.803
 770	1	0.000	87.665	65.742	1.092
 771	2	0.000	86.057	66.679	2.088
 772	2	0.000	86.062	64.820	2.113
 773	2	0.000	88.137	66.668	0.782
 774	2	0.000	88.142	64.809	0.807
 775	1	0.000	54.262	82.588	49.757
 776	1	0.000	54.090	82.644	51.081
 777	2	0.000	54.304	83.492	49.159
 778	2	0.000	54.363	81.636	49.245
 779	2	0.000	53.989	83.595	51.593
 780	2	0.000	54.048	81.738	51.679
 781	1	0.000	48.845	27.702	67.254
 782	1	0.000	49.365	28.926	67.387
 783	2	0.000	48.966	26.955	68.031
 784	2	0.000	48.287	27.424	66.365
 785	2	0.000	49.922	29.204	68.275
 786	2	0.000	49.243	29.673	66.610
 787	1	0.000	69.537	53.996	53.809
 788	1	0.000	70.085	52.779	53.867
 789	2	0.000	68.462	54.130	53.871
 790	2	0.000	70.153	54.883	53.698
 791	2	0.000	69.470	51.892	53.978
 792	2	0.000	71.161	52.646	53.804
 793	1	0.000	47.488	71.910	40.003
 794	1	0.000	48.541	72.596	39.549
 795	2	0.000	47.585	71.225	40.839
 796	2	0.000	46.509	72.020	39.548
 797	2	0.000	49.520	72.487	40.004
 798	2	0.000	48.444	73.282	38.713
 799	1	0.000	14.996	10.840	47.835
 800	1	0.000	14.363	10.284	48.872
 801	2	0.000	15.970	10.485	47.517
 802	2	0.000	14.550	11.662	47.283
 803	2	0.000	14.808	9.462	49.423
 804	2	0.000	13.388	10.639	49.189
 805	1	0.000	70.643	19.142	82.236
 806	1	0.000	71.914	19.531	82.103
 807	2	0.000	70.235	18.882	83.208
 808	2	0.000	69.984	19.076	81.375
 809	2	0.000	72.572	19.597	82.963
 810	2	0.000	72.321	19.791	81.131
 811	1	0.000	57.800	34.778	8.955
 812	1	0.000	57.521	35.909	9.610
 813	2	0.000	57.684	34.711	7.879
 814	2	0.000	58.150	33.897	9.484
 815	2	0.000	57.171	36.790	9.083
 816	2	0.000	57.637	35.975	10.688
 817	1	0.000	35.228	55.027	62.697
 818	1	0.000	36.010	54.395	63.576
 819	2	0.000	35.132	56.108	62.709
 820	2	0.000	34.669	54.476	61.947
 821	2	0.000	36.569	54.945	64.325
 822	2	0.000	36.106	53.313	63.564
 823	1	0.000	13.934	73.478	69.304
 824	1	0.000	13.014	73.088	70.191
 825	2	0.000	13.815	73.271	68.246
 826	2	0.000	14.825	74.013	69.619
 827	2	0.000	12.124	72.554	69.877
 828	2	0.000	13.134	73.296	71.250
 829	1	0.000	47.904	33.968	29.589
 830	1	0.000	48.124	35.264	29.356
 831	2	0.000	47.234	33.391	28.960
 832	2	0.000	48.389	33.457	30.415
 833	2	0.000	47.639	35.775	28.531
 834	2	0.000	48.794	35.841	29.986
 835	1	0.000	18.591	13.194	63.779
 836	1	0.000	19.385	12.952	62.733
 837	2	0.000	18.150	12.382	64.348
 838	2	0.000	18.365	14.210	64.088
 839	2	0.000	19.611	11.937	62.424
 840	2	0.000	19.825	13.766	62.165
 841	1	0.000	6.691	63.273	63.366
 842	1	0.000	6.091	64.460	63.238
 843	2	0.000	7.452	62.951	62.662
 844	2	0.000	6.433	62.599	64.177
 845	2	0.000	6.349	65.133	62.428
 846	2	0.000	5.330	64.781	63.942
 847	1	0.000	80.562	31.565	21.811
 848	1	0.000	80.903	30.866	22.897
 849	2	0.000	80.113	31.081	20.951
 850	2	0.000	80.724	32.638	21.762
 851	2	0.000	80.741	29.794	22.946
 852	2	0.000	81.352	31.351	23.758
 853	1	0.000	16.643	55.756	79.663
 854	1	0.000	15.309	55.714	79.603
 855	2	0.000	17.232	56.075	78.809
 856	2	0.000	17.172	55.472	80.567
 857	2	0.000	14.779	55.998	78.700
 858	2	0.000	14.720	55.395	80.458
 859	1	0.000	42.369	56.208	25.637
 860	1	0.000	41.631	55.265	26.230
 861	2	0.000	41.943	56.860	24.881
 862	2	0.000	43.414	56.347	25.896
 863	2	0.000	40.587	55.126	25.971
 864	2	0.000	42.058	54.613	26.986
 865	1	0.000	19.057	66.002	75.891
 866	1	0.000	18.134	65.209	76.443
 867	2	0.000	19.034	66.235	74.832
 868	2	0.000	19.853	66.434	76.489
 869	2	0.000	17.338	64.776	75.846
 870	2	0.000	18.157	64.976	77.503
 871	1	0.000	60.889	11.759	15.077
 872	1	0.000	60.243	12.917	15.237
 873	2	0.000	61.881	11.609	15.489
 874	2	0.000	60.437	10.936	14.531
 875	2	0.000	60.693	13.739	15.783
 876	2	0.000	59.249	13.066	14.825
 877	1	0.000	40.046	25.813	16.432
 878	1	0.000	40.691	25.531	17.567
 879	2	0.000	38.981	26.018	16.428
 880	2	0.000	40.573	25.846	15.482
 881	2	0.000	40.165	25.498	18.516